<?xml version="1.0" encoding="UTF-8"?>

<!-- generated on 15/08/2014 1:34:17 by SUMO gui Version 0.20.0
<?xml version="1.0" encoding="UTF-8"?>

<configuration xmlns:xsi="http://www.w3.org/2001/XMLSchema-instance" xsi:noNamespaceSchemaLocation="http://sumo-sim.org/xsd/sumo-gui.exeConfiguration.xsd">

    <input>
        <net-file value="C:\Users\bdi_usr\Google Drive\AlgEvol - Ejec\Instancias Reales\I2_AE_1\red.net.xml"/>
        <route-files value="C:\Users\bdi_usr\Google Drive\AlgEvol - Ejec\Instancias Reales\I2_AE_1\red.rou.xml"/>
    </input>

    <output>
        <tripinfo-output value="C:\Users\bdi_usr\Google Drive\AlgEvol - Ejec\Instancias Reales\I2_AE_1\output-tripinfos.xml"/>
        <save-state.prefix value="C:\Users\bdi_usr\Google Drive\AlgEvol - Ejec\Instancias Reales\I2_AE_1\state"/>
    </output>

    <time>
        <begin value="0"/>
        <end value="300"/>
    </time>

    <processing>
        <time-to-teleport value="0"/>
    </processing>

    <report>
        <no-duration-log value="true"/>
        <no-step-log value="true"/>
    </report>

    <emissions>
        <phemlight-path value="C:\Users\bdi_usr\Google Drive\AlgEvol - Ejec\Instancias Reales\I2_AE_1\./PHEMlight/"/>
    </emissions>

</configuration>
-->

<tripinfos xmlns:xsi="http://www.w3.org/2001/XMLSchema-instance" xsi:noNamespaceSchemaLocation="http://sumo-sim.org/xsd/tripinfo_file.xsd">
    <tripinfo id="15" depart="6.00" departLane="179182969#1_0" departPos="116.74" departSpeed="16.67" departDelay="0.00" arrival="11.00" arrivalLane="179182969#2_0" arrivalPos="57.73" arrivalSpeed="15.45" duration="5.00" routeLength="58.64" waitSteps="0" rerouteNo="0" devices="tripinfo_15" vType="DEFAULT_VEHTYPE" vaporized=""/>
    <tripinfo id="10" depart="4.00" departLane="211973000#0_0" departPos="48.80" departSpeed="17.00" departDelay="0.00" arrival="21.00" arrivalLane="78106480_0" arrivalPos="92.33" arrivalSpeed="11.32" duration="17.00" routeLength="184.48" waitSteps="0" rerouteNo="0" devices="tripinfo_10" vType="DEFAULT_VEHTYPE" vaporized=""/>
    <tripinfo id="48" depart="19.00" departLane="78115369_0" departPos="21.20" departSpeed="16.67" departDelay="-0.20" arrival="33.00" arrivalLane="219475332#1_0" arrivalPos="146.12" arrivalSpeed="12.20" duration="14.00" routeLength="159.39" waitSteps="0" rerouteNo="0" devices="tripinfo_48" vType="DEFAULT_VEHTYPE" vaporized=""/>
    <tripinfo id="43" depart="17.00" departLane="78100359#0_0" departPos="95.88" departSpeed="5.67" departDelay="-0.20" arrival="39.00" arrivalLane="-78117315#0_0" arrivalPos="95.27" arrivalSpeed="11.31" duration="22.00" routeLength="209.80" waitSteps="0" rerouteNo="0" devices="tripinfo_43" vType="DEFAULT_VEHTYPE" vaporized=""/>
    <tripinfo id="33" depart="13.00" departLane="179394849#0_1" departPos="55.47" departSpeed="16.67" departDelay="-0.20" arrival="45.00" arrivalLane="78115276#3_0" arrivalPos="75.06" arrivalSpeed="11.23" duration="32.00" routeLength="336.38" waitSteps="0" rerouteNo="0" devices="tripinfo_33" vType="DEFAULT_VEHTYPE" vaporized=""/>
    <tripinfo id="35" depart="14.00" departLane="211973000#0_0" departPos="17.14" departSpeed="20.83" departDelay="0.00" arrival="49.00" arrivalLane="180834256#1_0" arrivalPos="205.00" arrivalSpeed="15.56" duration="35.00" routeLength="560.00" waitSteps="0" rerouteNo="0" devices="tripinfo_35" vType="DEFAULT_VEHTYPE" vaporized=""/>
    <tripinfo id="72" depart="28.00" departLane="211973000#2_0" departPos="9.83" departSpeed="20.83" departDelay="-0.80" arrival="52.00" arrivalLane="180834256#1_0" arrivalPos="205.00" arrivalSpeed="15.85" duration="24.00" routeLength="351.30" waitSteps="0" rerouteNo="0" devices="tripinfo_72" vType="DEFAULT_VEHTYPE" vaporized=""/>
    <tripinfo id="18" depart="7.00" departLane="211973000#0_0" departPos="41.68" departSpeed="20.83" departDelay="-0.20" arrival="55.00" arrivalLane="78108438_0" arrivalPos="211.77" arrivalSpeed="12.45" duration="48.00" routeLength="621.12" waitSteps="0" rerouteNo="0" devices="tripinfo_18" vType="DEFAULT_VEHTYPE" vaporized=""/>
    <tripinfo id="28" depart="12.00" departLane="-78115303_0" departPos="60.03" departSpeed="12.50" departDelay="0.80" arrival="57.00" arrivalLane="180834256#1_0" arrivalPos="205.00" arrivalSpeed="15.82" duration="45.00" routeLength="424.55" waitSteps="4" rerouteNo="0" devices="tripinfo_28" vType="DEFAULT_VEHTYPE" vaporized=""/>
    <tripinfo id="2" depart="0.00" departLane="-78115276#3_0" departPos="3.41" departSpeed="12.50" departDelay="-0.80" arrival="57.00" arrivalLane="173001466#1_0" arrivalPos="105.70" arrivalSpeed="12.49" duration="57.00" routeLength="277.32" waitSteps="25" rerouteNo="0" devices="tripinfo_2" vType="DEFAULT_VEHTYPE" vaporized=""/>
    <tripinfo id="37" depart="14.00" departLane="78104928#0_0" departPos="93.54" departSpeed="12.50" departDelay="-0.80" arrival="59.00" arrivalLane="78106480_0" arrivalPos="92.33" arrivalSpeed="11.71" duration="45.00" routeLength="402.75" waitSteps="3" rerouteNo="0" devices="tripinfo_37" vType="DEFAULT_VEHTYPE" vaporized=""/>
    <tripinfo id="36" depart="14.00" departLane="211973000#0_0" departPos="63.85" departSpeed="20.83" departDelay="-0.40" arrival="61.00" arrivalLane="78108438_0" arrivalPos="211.77" arrivalSpeed="12.12" duration="47.00" routeLength="598.95" waitSteps="0" rerouteNo="0" devices="tripinfo_36" vType="DEFAULT_VEHTYPE" vaporized=""/>
    <tripinfo id="1" depart="0.00" departLane="180834254#0_2" departPos="13.31" departSpeed="11.94" departDelay="-0.40" arrival="67.00" arrivalLane="180834256#1_1" arrivalPos="205.00" arrivalSpeed="16.52" duration="67.00" routeLength="378.23" waitSteps="31" rerouteNo="0" devices="tripinfo_1" vType="DEFAULT_VEHTYPE" vaporized=""/>
    <tripinfo id="49" depart="19.00" departLane="-78104928#1_0" departPos="23.89" departSpeed="12.50" departDelay="-0.60" arrival="72.00" arrivalLane="180834256#1_0" arrivalPos="205.00" arrivalSpeed="15.65" duration="53.00" routeLength="586.78" waitSteps="0" rerouteNo="0" devices="tripinfo_49" vType="DEFAULT_VEHTYPE" vaporized=""/>
    <tripinfo id="45" depart="18.00" departLane="78104928#2_0" departPos="44.62" departSpeed="12.50" departDelay="0.00" arrival="72.00" arrivalLane="78108438_0" arrivalPos="211.77" arrivalSpeed="11.31" duration="54.00" routeLength="616.65" waitSteps="0" rerouteNo="0" devices="tripinfo_45" vType="DEFAULT_VEHTYPE" vaporized=""/>
    <tripinfo id="13" depart="5.00" departLane="-78108438_0" departPos="146.46" departSpeed="12.50" departDelay="-0.20" arrival="75.00" arrivalLane="78106480_0" arrivalPos="92.33" arrivalSpeed="11.98" duration="70.00" routeLength="484.42" waitSteps="18" rerouteNo="0" devices="tripinfo_13" vType="DEFAULT_VEHTYPE" vaporized=""/>
    <tripinfo id="42" depart="16.00" departLane="179182969#0_0" departPos="13.07" departSpeed="16.67" departDelay="-0.80" arrival="76.00" arrivalLane="173001466#1_0" arrivalPos="105.70" arrivalSpeed="11.69" duration="60.00" routeLength="539.97" waitSteps="3" rerouteNo="0" devices="tripinfo_42" vType="DEFAULT_VEHTYPE" vaporized=""/>
    <tripinfo id="47" depart="19.00" departLane="78104928#0_0" departPos="87.07" departSpeed="12.50" departDelay="0.20" arrival="81.00" arrivalLane="211973000#1_1" arrivalPos="144.77" arrivalSpeed="8.34" duration="62.00" routeLength="531.37" waitSteps="0" rerouteNo="0" devices="tripinfo_47" vType="DEFAULT_VEHTYPE" vaporized=""/>
    <tripinfo id="38" depart="15.00" departLane="78104928#0_0" departPos="125.45" departSpeed="12.50" departDelay="-0.20" arrival="87.00" arrivalLane="180834252#0_1" arrivalPos="40.70" arrivalSpeed="20.16" duration="72.00" routeLength="581.92" waitSteps="4" rerouteNo="0" devices="tripinfo_38" vType="DEFAULT_VEHTYPE" vaporized=""/>
    <tripinfo id="68" depart="27.00" departLane="179394849#0_0" departPos="51.99" departSpeed="16.67" departDelay="-0.20" arrival="89.00" arrivalLane="180834254#1_0" arrivalPos="224.71" arrivalSpeed="20.57" duration="62.00" routeLength="396.63" waitSteps="31" rerouteNo="0" devices="tripinfo_68" vType="DEFAULT_VEHTYPE" vaporized=""/>
    <tripinfo id="56" depart="22.00" departLane="-78106480_0" departPos="49.43" departSpeed="12.50" departDelay="-0.40" arrival="91.00" arrivalLane="180834252#1_0" arrivalPos="106.96" arrivalSpeed="20.73" duration="69.00" routeLength="453.27" waitSteps="26" rerouteNo="0" devices="tripinfo_56" vType="DEFAULT_VEHTYPE" vaporized=""/>
    <tripinfo id="93" depart="37.00" departLane="179394849#0_0" departPos="39.34" departSpeed="16.67" departDelay="-0.20" arrival="91.00" arrivalLane="180834254#1_1" arrivalPos="224.71" arrivalSpeed="20.23" duration="54.00" routeLength="409.28" waitSteps="21" rerouteNo="0" devices="tripinfo_93" vType="DEFAULT_VEHTYPE" vaporized=""/>
    <tripinfo id="147" depart="58.00" departLane="211973000#0_0" departPos="47.67" departSpeed="17.00" departDelay="-0.80" arrival="91.00" arrivalLane="78106480_0" arrivalPos="92.33" arrivalSpeed="12.13" duration="33.00" routeLength="185.61" waitSteps="11" rerouteNo="0" devices="tripinfo_147" vType="DEFAULT_VEHTYPE" vaporized=""/>
    <tripinfo id="94" depart="37.00" departLane="179182969#0_1" departPos="100.61" departSpeed="6.71" departDelay="-0.60" arrival="93.00" arrivalLane="173001578_0" arrivalPos="193.57" arrivalSpeed="12.23" duration="56.00" routeLength="535.11" waitSteps="6" rerouteNo="0" devices="tripinfo_94" vType="DEFAULT_VEHTYPE" vaporized=""/>
    <tripinfo id="105" depart="43.00" departLane="179394849#0_0" departPos="2.49" departSpeed="16.67" departDelay="1.00" arrival="95.00" arrivalLane="180834254#1_0" arrivalPos="224.71" arrivalSpeed="19.75" duration="52.00" routeLength="446.13" waitSteps="18" rerouteNo="0" devices="tripinfo_105" vType="DEFAULT_VEHTYPE" vaporized=""/>
    <tripinfo id="124" depart="49.00" departLane="179394849#0_0" departPos="29.12" departSpeed="16.67" departDelay="-0.60" arrival="97.00" arrivalLane="180834254#1_0" arrivalPos="224.71" arrivalSpeed="20.01" duration="48.00" routeLength="419.50" waitSteps="14" rerouteNo="0" devices="tripinfo_124" vType="DEFAULT_VEHTYPE" vaporized=""/>
    <tripinfo id="9" depart="3.00" departLane="-173001466#1_0" departPos="87.13" departSpeed="10.69" departDelay="-0.60" arrival="99.00" arrivalLane="180834254#1_0" arrivalPos="224.71" arrivalSpeed="20.63" duration="96.00" routeLength="465.15" waitSteps="47" rerouteNo="0" devices="tripinfo_9" vType="DEFAULT_VEHTYPE" vaporized=""/>
    <tripinfo id="175" depart="70.00" departLane="179394849#0_0" departPos="72.97" departSpeed="16.67" departDelay="0.00" arrival="101.00" arrivalLane="180834254#1_0" arrivalPos="224.71" arrivalSpeed="20.25" duration="31.00" routeLength="375.65" waitSteps="0" rerouteNo="0" devices="tripinfo_175" vType="DEFAULT_VEHTYPE" vaporized=""/>
    <tripinfo id="8" depart="3.00" departLane="78099193#0_0" departPos="129.42" departSpeed="12.50" departDelay="-0.20" arrival="101.00" arrivalLane="-78100359#0_0" arrivalPos="102.72" arrivalSpeed="11.78" duration="98.00" routeLength="431.90" waitSteps="47" rerouteNo="0" devices="tripinfo_8" vType="DEFAULT_VEHTYPE" vaporized=""/>
    <tripinfo id="0" depart="0.00" departLane="190443984#0_0" departPos="91.09" departSpeed="7.82" departDelay="0.00" arrival="102.00" arrivalLane="78100359#3_0" arrivalPos="12.90" arrivalSpeed="10.77" duration="102.00" routeLength="339.26" waitSteps="51" rerouteNo="0" devices="tripinfo_0" vType="DEFAULT_VEHTYPE" vaporized=""/>
    <tripinfo id="24" depart="21.00" departLane="-78100359#5_0" departPos="5.21" departSpeed="12.50" departDelay="11.40" arrival="103.00" arrivalLane="180834252#2_0" arrivalPos="158.26" arrivalSpeed="19.88" duration="82.00" routeLength="305.62" waitSteps="48" rerouteNo="0" devices="tripinfo_24" vType="DEFAULT_VEHTYPE" vaporized=""/>
    <tripinfo id="71" depart="28.00" departLane="179394849#0_1" departPos="6.53" departSpeed="16.67" departDelay="-0.40" arrival="103.00" arrivalLane="173001466#1_0" arrivalPos="105.70" arrivalSpeed="11.44" duration="75.00" routeLength="315.97" waitSteps="40" rerouteNo="0" devices="tripinfo_71" vType="DEFAULT_VEHTYPE" vaporized=""/>
    <tripinfo id="70" depart="28.00" departLane="-78106480_0" departPos="91.88" departSpeed="12.50" departDelay="0.00" arrival="104.00" arrivalLane="180834256#1_0" arrivalPos="205.00" arrivalSpeed="16.49" duration="76.00" routeLength="576.06" waitSteps="25" rerouteNo="0" devices="tripinfo_70" vType="DEFAULT_VEHTYPE" vaporized=""/>
    <tripinfo id="120" depart="48.00" departLane="-78115276#3_0" departPos="18.25" departSpeed="12.50" departDelay="0.00" arrival="104.00" arrivalLane="180834254#1_0" arrivalPos="224.71" arrivalSpeed="19.71" duration="56.00" routeLength="581.56" waitSteps="1" rerouteNo="0" devices="tripinfo_120" vType="DEFAULT_VEHTYPE" vaporized=""/>
    <tripinfo id="30" depart="15.00" departLane="-173001466#1_0" departPos="27.62" departSpeed="12.50" departDelay="3.00" arrival="107.00" arrivalLane="180834254#1_0" arrivalPos="224.71" arrivalSpeed="19.60" duration="92.00" routeLength="524.66" waitSteps="39" rerouteNo="0" devices="tripinfo_30" vType="DEFAULT_VEHTYPE" vaporized=""/>
    <tripinfo id="207" depart="82.00" departLane="179394849#0_0" departPos="51.65" departSpeed="16.67" departDelay="-0.80" arrival="109.00" arrivalLane="180834254#1_0" arrivalPos="224.71" arrivalSpeed="20.27" duration="27.00" routeLength="396.97" waitSteps="0" rerouteNo="0" devices="tripinfo_207" vType="DEFAULT_VEHTYPE" vaporized=""/>
    <tripinfo id="153" depart="61.00" departLane="-78104928#1_0" departPos="201.37" departSpeed="10.44" departDelay="-0.20" arrival="109.00" arrivalLane="-78104928#0_0" arrivalPos="184.76" arrivalSpeed="11.82" duration="48.00" routeLength="202.59" waitSteps="24" rerouteNo="0" devices="tripinfo_153" vType="DEFAULT_VEHTYPE" vaporized=""/>
    <tripinfo id="137" depart="58.00" departLane="211973000#1_0" departPos="10.54" departSpeed="20.83" departDelay="3.20" arrival="110.00" arrivalLane="180834256#1_0" arrivalPos="205.00" arrivalSpeed="15.86" duration="52.00" routeLength="495.36" waitSteps="11" rerouteNo="0" devices="tripinfo_137" vType="DEFAULT_VEHTYPE" vaporized=""/>
    <tripinfo id="126" depart="50.00" departLane="211973000#0_0" departPos="18.99" departSpeed="20.83" departDelay="-0.40" arrival="110.00" arrivalLane="78113355#3_0" arrivalPos="78.89" arrivalSpeed="11.34" duration="60.00" routeLength="510.93" waitSteps="14" rerouteNo="0" devices="tripinfo_126" vType="DEFAULT_VEHTYPE" vaporized=""/>
    <tripinfo id="40" depart="16.00" departLane="78117315#3_0" departPos="57.63" departSpeed="12.50" departDelay="0.00" arrival="111.00" arrivalLane="-78115276#1_0" arrivalPos="108.01" arrivalSpeed="4.06" duration="95.00" routeLength="439.42" waitSteps="43" rerouteNo="0" devices="tripinfo_40" vType="DEFAULT_VEHTYPE" vaporized=""/>
    <tripinfo id="197" depart="79.00" departLane="211973000#1_0" departPos="47.93" departSpeed="20.83" departDelay="0.20" arrival="112.00" arrivalLane="180834256#1_0" arrivalPos="205.00" arrivalSpeed="16.23" duration="33.00" routeLength="457.97" waitSteps="0" rerouteNo="0" devices="tripinfo_197" vType="DEFAULT_VEHTYPE" vaporized=""/>
    <tripinfo id="235" depart="94.00" departLane="-78106480_0" departPos="76.33" departSpeed="12.50" departDelay="0.00" arrival="119.00" arrivalLane="-78104928#1_0" arrivalPos="219.20" arrivalSpeed="5.75" duration="25.00" routeLength="235.20" waitSteps="0" rerouteNo="0" devices="tripinfo_235" vType="DEFAULT_VEHTYPE" vaporized=""/>
    <tripinfo id="99" depart="39.00" departLane="211973000#0_0" departPos="1.99" departSpeed="20.83" departDelay="-0.60" arrival="120.00" arrivalLane="78108438_0" arrivalPos="211.77" arrivalSpeed="11.32" duration="81.00" routeLength="660.81" waitSteps="22" rerouteNo="0" devices="tripinfo_99" vType="DEFAULT_VEHTYPE" vaporized=""/>
    <tripinfo id="220" depart="88.00" departLane="179182969#0_1" departPos="89.60" departSpeed="16.67" departDelay="0.00" arrival="124.00" arrivalLane="180834258_0" arrivalPos="14.93" arrivalSpeed="12.04" duration="36.00" routeLength="210.23" waitSteps="10" rerouteNo="0" devices="tripinfo_220" vType="DEFAULT_VEHTYPE" vaporized=""/>
    <tripinfo id="73" depart="33.00" departLane="78119527#0_2" departPos="45.50" departSpeed="20.83" departDelay="3.80" arrival="126.00" arrivalLane="-173001467#0_0" arrivalPos="102.36" arrivalSpeed="11.54" duration="93.00" routeLength="424.72" waitSteps="39" rerouteNo="0" devices="tripinfo_73" vType="DEFAULT_VEHTYPE" vaporized=""/>
    <tripinfo id="26" depart="10.00" departLane="179182969#0_0" departPos="93.23" departSpeed="16.67" departDelay="-0.40" arrival="128.00" arrivalLane="180834254#1_0" arrivalPos="224.71" arrivalSpeed="20.81" duration="118.00" routeLength="497.39" waitSteps="64" rerouteNo="0" devices="tripinfo_26" vType="DEFAULT_VEHTYPE" vaporized=""/>
    <tripinfo id="61" depart="24.00" departLane="179182969#1_0" departPos="93.63" departSpeed="16.67" departDelay="-0.40" arrival="129.00" arrivalLane="180834254#1_0" arrivalPos="224.71" arrivalSpeed="19.82" duration="105.00" routeLength="387.47" waitSteps="58" rerouteNo="0" devices="tripinfo_61" vType="DEFAULT_VEHTYPE" vaporized=""/>
    <tripinfo id="12" depart="4.00" departLane="211973000#1_2" departPos="18.73" departSpeed="20.83" departDelay="-0.80" arrival="129.00" arrivalLane="78115276#1_0" arrivalPos="108.01" arrivalSpeed="11.46" duration="125.00" routeLength="598.46" waitSteps="53" rerouteNo="0" devices="tripinfo_12" vType="DEFAULT_VEHTYPE" vaporized=""/>
    <tripinfo id="212" depart="88.00" departLane="78117315#3_0" departPos="35.99" departSpeed="12.50" departDelay="3.20" arrival="129.00" arrivalLane="173001578_0" arrivalPos="193.57" arrivalSpeed="11.51" duration="41.00" routeLength="264.96" waitSteps="4" rerouteNo="0" devices="tripinfo_212" vType="DEFAULT_VEHTYPE" vaporized=""/>
    <tripinfo id="79" depart="31.00" departLane="179182969#0_0" departPos="88.60" departSpeed="16.67" departDelay="-0.60" arrival="130.00" arrivalLane="180834254#1_1" arrivalPos="224.71" arrivalSpeed="20.66" duration="99.00" routeLength="502.02" waitSteps="42" rerouteNo="0" devices="tripinfo_79" vType="DEFAULT_VEHTYPE" vaporized=""/>
    <tripinfo id="19" depart="7.00" departLane="-78117315#2_0" departPos="39.29" departSpeed="12.50" departDelay="-0.60" arrival="130.00" arrivalLane="-173001467#0_0" arrivalPos="102.36" arrivalSpeed="11.90" duration="123.00" routeLength="568.93" waitSteps="51" rerouteNo="0" devices="tripinfo_19" vType="DEFAULT_VEHTYPE" vaporized=""/>
    <tripinfo id="16" depart="6.00" departLane="78100359#0_0" departPos="32.24" departSpeed="12.50" departDelay="-0.40" arrival="136.00" arrivalLane="180834256#1_0" arrivalPos="205.00" arrivalSpeed="16.65" duration="130.00" routeLength="722.97" waitSteps="51" rerouteNo="0" devices="tripinfo_16" vType="DEFAULT_VEHTYPE" vaporized=""/>
    <tripinfo id="150" depart="60.00" departLane="179182969#0_1" departPos="72.89" departSpeed="16.67" departDelay="0.00" arrival="137.00" arrivalLane="180834259#2_1" arrivalPos="113.55" arrivalSpeed="15.66" duration="77.00" routeLength="476.50" waitSteps="33" rerouteNo="0" devices="tripinfo_150" vType="DEFAULT_VEHTYPE" vaporized=""/>
    <tripinfo id="151" depart="60.00" departLane="179394849#0_1" departPos="24.32" departSpeed="16.67" departDelay="-0.40" arrival="138.00" arrivalLane="-78117315#2_0" arrivalPos="94.18" arrivalSpeed="5.34" duration="78.00" routeLength="286.66" waitSteps="38" rerouteNo="0" devices="tripinfo_151" vType="DEFAULT_VEHTYPE" vaporized=""/>
    <tripinfo id="142" depart="56.00" departLane="-78117315#2_0" departPos="77.34" departSpeed="10.11" departDelay="-0.80" arrival="139.00" arrivalLane="173001578_0" arrivalPos="193.57" arrivalSpeed="11.38" duration="83.00" routeLength="411.97" waitSteps="26" rerouteNo="0" devices="tripinfo_142" vType="DEFAULT_VEHTYPE" vaporized=""/>
    <tripinfo id="5" depart="2.00" departLane="190443984#0_0" departPos="46.22" departSpeed="12.50" departDelay="0.00" arrival="139.00" arrivalLane="78099193#0_0" arrivalPos="137.82" arrivalSpeed="11.98" duration="137.00" routeLength="713.20" waitSteps="49" rerouteNo="0" devices="tripinfo_5" vType="DEFAULT_VEHTYPE" vaporized=""/>
    <tripinfo id="140" depart="57.00" departLane="-173001466#0_0" departPos="94.46" departSpeed="5.01" departDelay="1.00" arrival="142.00" arrivalLane="78099193#0_0" arrivalPos="137.82" arrivalSpeed="11.89" duration="85.00" routeLength="540.12" waitSteps="23" rerouteNo="0" devices="tripinfo_140" vType="DEFAULT_VEHTYPE" vaporized=""/>
    <tripinfo id="96" depart="38.00" departLane="179182969#0_0" departPos="91.67" departSpeed="14.90" departDelay="-0.40" arrival="147.00" arrivalLane="173001466#1_0" arrivalPos="105.70" arrivalSpeed="12.19" duration="109.00" routeLength="461.37" waitSteps="55" rerouteNo="0" devices="tripinfo_96" vType="DEFAULT_VEHTYPE" vaporized=""/>
    <tripinfo id="97" depart="38.00" departLane="78119527#1_0" departPos="75.97" departSpeed="10.57" departDelay="-0.80" arrival="149.00" arrivalLane="173001466#1_0" arrivalPos="105.70" arrivalSpeed="11.92" duration="111.00" routeLength="290.48" waitSteps="73" rerouteNo="0" devices="tripinfo_97" vType="DEFAULT_VEHTYPE" vaporized=""/>
    <tripinfo id="85" depart="34.00" departLane="78104928#1_0" departPos="13.97" departSpeed="12.50" departDelay="0.00" arrival="151.00" arrivalLane="180834252#2_1" arrivalPos="158.26" arrivalSpeed="8.93" duration="117.00" routeLength="773.86" waitSteps="36" rerouteNo="0" devices="tripinfo_85" vType="DEFAULT_VEHTYPE" vaporized=""/>
    <tripinfo id="224" depart="89.00" departLane="179394849#0_1" departPos="27.33" departSpeed="16.67" departDelay="-0.60" arrival="151.00" arrivalLane="-78117315#1_0" arrivalPos="107.69" arrivalSpeed="11.33" duration="62.00" routeLength="391.34" waitSteps="19" rerouteNo="0" devices="tripinfo_224" vType="DEFAULT_VEHTYPE" vaporized=""/>
    <tripinfo id="46" depart="20.00" departLane="-173001466#1_0" departPos="42.62" departSpeed="12.50" departDelay="1.60" arrival="153.00" arrivalLane="180834252#3_0" arrivalPos="26.47" arrivalSpeed="12.31" duration="133.00" routeLength="553.32" waitSteps="50" rerouteNo="0" devices="tripinfo_46" vType="DEFAULT_VEHTYPE" vaporized=""/>
    <tripinfo id="88" depart="35.00" departLane="190443984#0_0" departPos="40.79" departSpeed="12.50" departDelay="-0.20" arrival="162.00" arrivalLane="173001578_0" arrivalPos="193.57" arrivalSpeed="12.21" duration="127.00" routeLength="564.26" waitSteps="41" rerouteNo="0" devices="tripinfo_88" vType="DEFAULT_VEHTYPE" vaporized=""/>
    <tripinfo id="146" depart="58.00" departLane="-78100359#4_0" departPos="22.32" departSpeed="12.50" departDelay="-0.40" arrival="163.00" arrivalLane="176269589_0" arrivalPos="66.57" arrivalSpeed="11.89" duration="105.00" routeLength="251.69" waitSteps="55" rerouteNo="0" devices="tripinfo_146" vType="DEFAULT_VEHTYPE" vaporized=""/>
    <tripinfo id="186" depart="75.00" departLane="78117315#2_0" departPos="3.95" departSpeed="12.50" departDelay="0.60" arrival="164.00" arrivalLane="180834259#2_0" arrivalPos="113.55" arrivalSpeed="16.58" duration="89.00" routeLength="304.85" waitSteps="29" rerouteNo="0" devices="tripinfo_186" vType="DEFAULT_VEHTYPE" vaporized=""/>
    <tripinfo id="294" depart="117.00" departLane="211973000#0_0" departPos="60.26" departSpeed="20.83" departDelay="-0.60" arrival="166.00" arrivalLane="180834252#1_0" arrivalPos="106.96" arrivalSpeed="19.63" duration="49.00" routeLength="351.64" waitSteps="18" rerouteNo="0" devices="tripinfo_294" vType="DEFAULT_VEHTYPE" vaporized=""/>
    <tripinfo id="226" depart="90.00" departLane="211973000#2_0" departPos="45.21" departSpeed="20.83" departDelay="-0.40" arrival="166.00" arrivalLane="-173001467#0_0" arrivalPos="102.36" arrivalSpeed="11.80" duration="76.00" routeLength="444.29" waitSteps="33" rerouteNo="0" devices="tripinfo_226" vType="DEFAULT_VEHTYPE" vaporized=""/>
    <tripinfo id="191" depart="76.00" departLane="-78117315#2_0" departPos="34.57" departSpeed="12.50" departDelay="-0.40" arrival="167.00" arrivalLane="180834259#2_0" arrivalPos="113.55" arrivalSpeed="15.64" duration="91.00" routeLength="368.41" waitSteps="22" rerouteNo="0" devices="tripinfo_191" vType="DEFAULT_VEHTYPE" vaporized=""/>
    <tripinfo id="228" depart="91.00" departLane="179394849#0_0" departPos="32.24" departSpeed="16.67" departDelay="-0.20" arrival="170.00" arrivalLane="180834254#1_0" arrivalPos="224.71" arrivalSpeed="20.74" duration="79.00" routeLength="416.38" waitSteps="46" rerouteNo="0" devices="tripinfo_228" vType="DEFAULT_VEHTYPE" vaporized=""/>
    <tripinfo id="27" depart="11.00" departLane="180834252#2_2" departPos="50.78" departSpeed="20.83" departDelay="0.20" arrival="171.00" arrivalLane="180834259#2_0" arrivalPos="113.55" arrivalSpeed="15.84" duration="160.00" routeLength="698.05" waitSteps="90" rerouteNo="0" devices="tripinfo_27" vType="DEFAULT_VEHTYPE" vaporized=""/>
    <tripinfo id="64" depart="34.00" departLane="-173001466#1_0" departPos="37.49" departSpeed="12.50" departDelay="8.40" arrival="172.00" arrivalLane="180834254#1_0" arrivalPos="224.71" arrivalSpeed="19.87" duration="138.00" routeLength="514.79" waitSteps="71" rerouteNo="0" devices="tripinfo_64" vType="DEFAULT_VEHTYPE" vaporized=""/>
    <tripinfo id="394" depart="157.00" departLane="78115369_0" departPos="0.60" departSpeed="20.83" departDelay="-0.60" arrival="172.00" arrivalLane="219475332#1_0" arrivalPos="146.12" arrivalSpeed="11.53" duration="15.00" routeLength="179.99" waitSteps="0" rerouteNo="0" devices="tripinfo_394" vType="DEFAULT_VEHTYPE" vaporized=""/>
    <tripinfo id="410" depart="164.00" departLane="211973000#0_0" departPos="63.01" departSpeed="20.83" departDelay="0.00" arrival="175.00" arrivalLane="211973000#2_0" arrivalPos="48.03" arrivalSpeed="19.76" duration="11.00" routeLength="201.03" waitSteps="0" rerouteNo="0" devices="tripinfo_410" vType="DEFAULT_VEHTYPE" vaporized=""/>
    <tripinfo id="170" depart="68.00" departLane="211973000#2_2" departPos="2.24" departSpeed="18.16" departDelay="0.00" arrival="175.00" arrivalLane="180834259#2_0" arrivalPos="113.55" arrivalSpeed="16.49" duration="107.00" routeLength="416.49" waitSteps="54" rerouteNo="0" devices="tripinfo_170" vType="DEFAULT_VEHTYPE" vaporized=""/>
    <tripinfo id="227" depart="90.00" departLane="211973000#0_0" departPos="38.72" departSpeed="14.88" departDelay="-0.80" arrival="182.00" arrivalLane="-173001467#0_0" arrivalPos="102.36" arrivalSpeed="11.36" duration="92.00" routeLength="666.79" waitSteps="35" rerouteNo="0" devices="tripinfo_227" vType="DEFAULT_VEHTYPE" vaporized=""/>
    <tripinfo id="129" depart="53.00" departLane="78104928#0_0" departPos="85.35" departSpeed="12.50" departDelay="1.40" arrival="183.00" arrivalLane="-78104928#1_0" arrivalPos="219.20" arrivalSpeed="5.68" duration="130.00" routeLength="537.81" waitSteps="59" rerouteNo="0" devices="tripinfo_129" vType="DEFAULT_VEHTYPE" vaporized=""/>
    <tripinfo id="288" depart="115.00" departLane="-78106480_0" departPos="40.09" departSpeed="12.50" departDelay="-0.20" arrival="185.00" arrivalLane="-78104928#1_0" arrivalPos="219.20" arrivalSpeed="7.86" duration="70.00" routeLength="271.44" waitSteps="37" rerouteNo="0" devices="tripinfo_288" vType="DEFAULT_VEHTYPE" vaporized=""/>
    <tripinfo id="241" depart="96.00" departLane="211973000#0_0" departPos="60.35" departSpeed="20.83" departDelay="-0.40" arrival="186.00" arrivalLane="-173001467#0_0" arrivalPos="102.36" arrivalSpeed="11.84" duration="90.00" routeLength="645.16" waitSteps="38" rerouteNo="0" devices="tripinfo_241" vType="DEFAULT_VEHTYPE" vaporized=""/>
    <tripinfo id="6" depart="2.00" departLane="179394849#0_0" departPos="61.96" departSpeed="16.67" departDelay="-0.40" arrival="188.00" arrivalLane="-173001467#0_0" arrivalPos="102.36" arrivalSpeed="12.47" duration="186.00" routeLength="663.18" waitSteps="113" rerouteNo="0" devices="tripinfo_6" vType="DEFAULT_VEHTYPE" vaporized=""/>
    <tripinfo id="303" depart="121.00" departLane="211973000#0_0" departPos="46.14" departSpeed="20.83" departDelay="-0.20" arrival="193.00" arrivalLane="78108438_0" arrivalPos="211.77" arrivalSpeed="11.80" duration="72.00" routeLength="616.66" waitSteps="15" rerouteNo="0" devices="tripinfo_303" vType="DEFAULT_VEHTYPE" vaporized=""/>
    <tripinfo id="382" depart="152.00" departLane="179394849#0_1" departPos="95.13" departSpeed="14.58" departDelay="-0.80" arrival="194.00" arrivalLane="-173001466#0_0" arrivalPos="99.99" arrivalSpeed="10.38" duration="42.00" routeLength="221.66" waitSteps="14" rerouteNo="0" devices="tripinfo_382" vType="DEFAULT_VEHTYPE" vaporized=""/>
    <tripinfo id="362" depart="145.00" departLane="211973000#0_0" departPos="24.00" departSpeed="20.83" departDelay="0.20" arrival="198.00" arrivalLane="78108438_0" arrivalPos="211.77" arrivalSpeed="12.16" duration="53.00" routeLength="638.80" waitSteps="0" rerouteNo="0" devices="tripinfo_362" vType="DEFAULT_VEHTYPE" vaporized=""/>
    <tripinfo id="275" depart="110.00" departLane="211973000#0_0" departPos="65.78" departSpeed="12.50" departDelay="0.00" arrival="199.00" arrivalLane="-78104928#0_0" arrivalPos="184.76" arrivalSpeed="11.71" duration="89.00" routeLength="479.13" waitSteps="39" rerouteNo="0" devices="tripinfo_275" vType="DEFAULT_VEHTYPE" vaporized=""/>
    <tripinfo id="29" depart="12.00" departLane="173001467#0_0" departPos="11.23" departSpeed="12.50" departDelay="0.40" arrival="200.00" arrivalLane="173001578_0" arrivalPos="193.57" arrivalSpeed="11.52" duration="188.00" routeLength="801.02" waitSteps="89" rerouteNo="0" devices="tripinfo_29" vType="DEFAULT_VEHTYPE" vaporized=""/>
    <tripinfo id="100" depart="40.00" departLane="179182969#0_0" departPos="4.98" departSpeed="16.67" departDelay="0.00" arrival="200.00" arrivalLane="-78117315#0_0" arrivalPos="95.27" arrivalSpeed="11.91" duration="160.00" routeLength="734.06" waitSteps="80" rerouteNo="0" devices="tripinfo_100" vType="DEFAULT_VEHTYPE" vaporized=""/>